LAMMPS Description

     8  atoms
     7  bonds
     6  angles
     0  dihedrals
     0  impropers

     1  atom types
     1  bond types
     1  angle types

  0 5.0 xlo xhi
  0 5.0 ylo yhi
  0 5.0 zlo zhi

Masses

    1   1.0

Atoms

1 1 1 0.000 0.0 0.0 0.0 0 0
2 1 1 0.000 0.5 0.0 0.0 0 0
3 1 1 0.000 1.0 0.0 0.0 0 0
4 1 1 0.000 1.5 0.0 0.0 0 0
5 1 1 0.000 2.0 0.0 0.0 0 0
6 1 1 0.000 2.5 0.0 0.0 0 0
7 1 1 0.000 3.0 0.0 0.0 0 0
8 1 1 0.000 3.5 0.0 0.0 0 0

Bonds

1 1 1 2
2 1 2 3
3 1 3 4
4 1 4 5
5 1 5 6
6 1 6 7
7 1 7 8

Angles

1 1 1 2 3
2 1 2 3 4
3 1 3 4 5
4 1 4 5 6
5 1 5 6 7
6 1 6 7 8

