LAMMPS FENE chain data file

         140  atoms
         134  bonds
           0  angles
           0  dihedrals
           0  impropers

           1  atom types
           1  bond types
           0  angle types
           0  dihedral types
           0  improper types

 -2.740773  2.740773 xlo xhi
 -2.740773  2.740773 ylo yhi
 -2.740773  2.740773 zlo zhi

Masses

  1  1.0

Atoms

         1       1       1    0.2476    0.3773   -1.0992   0   0   0
         2       1       1    0.0119    1.1939   -1.0877   0   0   0
         3       1       1   -0.5843    1.4321   -1.6448   0   0   0
         4       1       1   -1.3995    1.3355   -1.8653   0   0   0
         5       1       1   -2.1043    1.6894   -1.5483   0   0   0
         6       1       1   -2.2730    2.4853   -1.3021   0   0   0
         7       1       1   -2.1439   -2.1922   -1.5455   0   1   0
         8       1       1   -1.8894   -1.9921   -2.3314   0   1   0
         9       1       1   -2.4397   -1.9843    2.5023   0   1  -1
        10       1       1    2.2183   -1.8626    2.3305  -1   1  -1
        11       2       1   -1.5674    0.9082   -2.2801   0   0   0
        12       2       1   -2.2969    0.8408   -1.8492   0   0   0
        13       2       1   -2.5739    1.2734   -2.5264   0   0   0
        14       2       1   -2.5660    0.6924    2.3349   0   0  -1
        15       2       1    2.2911    0.5832   -2.5803  -1   0   0
        16       2       1   -2.3882    0.3039   -2.6123   0   0   0
        17       2       1   -1.6214    0.4555    2.5354   0   0  -1
        18       2       1   -1.1012    0.1792   -2.3332   0   0   0
        19       2       1   -1.3974   -0.4076   -1.7943   0   0   0
        20       2       1   -1.8229   -0.6892   -2.4741   0   0   0
        21       2       1   -1.6007   -1.5088   -2.4369   0   0   0
        22       2       1   -1.0142   -1.5132    2.4294   0   0  -1
        23       2       1   -0.6255   -2.2162    2.1517   0   0  -1
        24       2       1    0.0900   -1.7654    2.2376   0   0  -1
        25       2       1   -0.3771   -1.1893    2.6528   0   0  -1
        26       2       1   -1.0756   -1.6665    2.5703   0   0  -1
        27       2       1   -1.8354   -1.3502    2.3578   0   0  -1
        28       2       1   -2.6266   -1.5634    2.5836   0   0  -1
        29       2       1    2.2917   -2.1848    2.4452  -1   0  -1
        30       2       1    1.4717   -2.4083    2.4302  -1   0  -1
        31       3       1    2.4842   -0.6240   -1.7574   0   0   0
        32       3       1   -2.5128   -0.0179   -2.1042   1   0   0
        33       3       1    2.6250   -0.6167   -1.6085   0   0   0
        34       3       1   -2.6069   -0.7846   -2.4035   1   0   0
        35       3       1   -2.7098    0.0379   -2.5915   1   0   0
        36       3       1   -2.0579    0.4220    2.5027   1   0  -1
        37       3       1   -2.6081    0.3028    1.8658   1   0  -1
        38       3       1    2.4922    0.4642    1.1234   0   0  -1
        39       3       1   -2.2898    0.6883    1.5511   1   0  -1
        40       3       1   -2.5784    1.3877    1.9383   1   0  -1
        41       3       1   -2.1974    1.9570    1.4352   1   0  -1
        42       3       1    2.6653    2.1846    0.8988   0   0  -1
        43       3       1   -2.1758    2.4800    0.4243   1   0  -1
        44       3       1   -2.6600    1.7954    0.5632   1   0  -1
        45       3       1    2.1157    1.3246    0.6151   0   0  -1
        46       3       1    2.7262    1.5808    0.0820   0   0  -1
        47       3       1    2.2790    1.0997   -0.4575   0   0  -1
        48       3       1    2.1665    0.2890   -0.6869   0   0  -1
        49       3       1    2.4331   -0.2474   -0.0838   0   0  -1
        50       3       1   -2.5247   -0.7519    0.3563   1   0  -1
        51       4       1   -0.9904    2.0088    0.6592   0   0   0
        52       4       1   -1.4635    1.4672    0.2060   0   0   0
        53       4       1   -1.6775    1.0802    0.9319   0   0   0
        54       4       1   -2.5272    1.0948    0.9177   0   0   0
        55       4       1   -2.3496    0.2965    1.1492   0   0   0
        56       4       1    2.7207   -0.0174    0.4748  -1   0   0
        57       4       1    2.6259   -0.2760    1.2789  -1   0   0
        58       4       1    1.8073   -0.3463    1.0609  -1   0   0
        59       4       1    1.6074    0.4675    0.9188  -1   0   0
        60       4       1    1.1444    1.1804    0.9210  -1   0   0
        61       4       1    1.0889    1.8890    0.4548  -1   0   0
        62       4       1    1.6687    1.7789   -0.1569  -1   0   0
        63       4       1    1.6035    1.2144   -0.7891  -1   0   0
        64       4       1    1.4539    1.3183   -1.6194  -1   0   0
        65       4       1    1.0541    1.0037   -2.3003  -1   0   0
        66       4       1    1.0428    0.1560   -2.2393  -1   0   0
        67       4       1    0.7721   -0.2602    2.5523  -1   0  -1
        68       4       1    0.6388   -1.0880    2.4125  -1   0  -1
        69       4       1    1.2028   -1.1450    1.7791  -1   0  -1
        70       4       1    1.3704   -1.2595    0.9537  -1   0  -1
        71       4       1    0.7042   -1.2673    0.4259  -1   0  -1
        72       4       1    0.2846   -2.0054    0.3853  -1   0  -1
        73       4       1   -0.2998   -2.3859    0.8712  -1   0  -1
        74       4       1   -0.4155   -2.6941    1.6549  -1   0  -1
        75       4       1   -0.5299    1.9455    1.6786  -1  -1  -1
        76       4       1    0.2786    1.9248    1.4171  -1  -1  -1
        77       4       1    0.3923    1.1098    1.2041  -1  -1  -1
        78       4       1    0.7776    0.6235    1.7851  -1  -1  -1
        79       4       1    1.4748    1.0614    1.5738  -1  -1  -1
        80       4       1    2.2861    1.2497    1.4039  -1  -1  -1
        81       5       1   -1.0823    2.6724   -0.2457   0   0   0
        82       5       1   -1.5270    2.0313   -0.5828   0   0   0
        83       5       1   -2.1180    1.4365   -0.7225   0   0   0
        84       5       1   -1.7888    1.5711   -1.4945   0   0   0
        85       5       1   -1.0300    1.1920   -1.5485   0   0   0
        86       5       1   -0.4104    1.3063   -2.1191   0   0   0
        87       5       1   -0.2243    2.1320   -2.0412   0   0   0
        88       5       1   -0.0969   -2.5149   -2.1392   0   1   0
        89       5       1    0.0512   -2.0621   -1.4352   0   1   0
        90       5       1    0.7563   -2.4535   -1.1667   0   1   0
        91       5       1    0.9422    2.2455   -0.8917   0   0   0
        92       5       1    1.1292    2.0186   -1.6892   0   0   0
        93       5       1    1.0592    2.5479   -2.3506   0   0   0
        94       5       1    1.1919   -2.2086   -1.9273   0   1   0
        95       5       1    1.9293   -1.9720   -2.2776   0   1   0
        96       5       1    1.8761   -1.1308   -2.3874   0   1   0
        97       5       1    1.8717   -0.4025   -1.9492   0   1   0
        98       5       1    2.5776   -0.1670   -2.3600   0   1   0
        99       5       1   -2.3605    0.4587   -2.5491   1   1   0
       100       5       1    2.6372    0.8970   -2.0048   0   1   0
       101       5       1   -2.0740    0.5378   -2.0058   1   1   0
       102       5       1   -1.6675    0.2219   -1.3294   1   1   0
       103       5       1   -0.9847    0.4747   -0.8908   1   1   0
       104       5       1   -0.3975    0.9566   -0.5096   1   1   0
       105       5       1   -0.9031    1.6290   -0.3881   1   1   0
       106       5       1   -0.8749    1.4960    0.4509   1   1   0
       107       5       1   -0.7491    2.2805    0.7530   1   1   0
       108       5       1    0.0281    2.5264    0.9936   1   1   0
       109       5       1    0.8692    2.5696    0.8789   1   1   0
       110       5       1    0.8258    2.3684    1.7036   1   1   0
       111       6       1   -0.6996    0.0198   -2.3790   0   0   0
       112       6       1   -1.1939    0.1760    2.4290   0   0  -1
       113       6       1   -0.3853    0.2510    2.6800   0   0  -1
       114       6       1   -0.2222    0.7604    2.0195   0   0  -1
       115       6       1    0.2658    0.8745    1.3329   0   0  -1
       116       6       1    0.2909    1.6720    1.0398   0   0  -1
       117       6       1    1.1314    1.6424    0.9164   0   0  -1
       118       6       1    1.7525    1.9828    0.4466   0   0  -1
       119       6       1    1.7824    1.4175   -0.1875   0   0  -1
       120       6       1    1.1612    1.8344   -0.5911   0   0  -1
       121       6       1    0.4470    1.9610   -1.0343   0   0  -1
       122       6       1   -0.0929    2.6163   -0.9936   0   0  -1
       123       6       1    0.4858   -2.5173   -0.4774   0   1  -1
       124       6       1    0.0132   -2.2073   -1.1122   0   1  -1
       125       6       1   -0.2403   -2.4740   -1.8784   0   1  -1
       126       6       1   -0.8261    2.3920   -1.9021   0   0  -1
       127       6       1   -0.7797    1.5499   -2.0075   0   0  -1
       128       6       1   -1.5310    1.1704   -2.1259   0   0  -1
       129       6       1   -1.5602    1.5393    2.5905   0   0  -2
       130       6       1   -1.4854    2.1799   -2.3373   0   0  -1
       131       6       1   -0.8419    1.8673   -1.8782   0   0  -1
       132       6       1   -0.6883    1.8869   -1.0425   0   0  -1
       133       6       1   -0.9028    2.7064   -1.1116   0   0  -1
       134       6       1   -1.1109    2.6117   -1.9302   0   0  -1
       135       6       1   -1.4911    2.0543   -2.4472   0   0  -1
       136       6       1   -2.0509    2.1417    2.4008   0   0  -2
       137       6       1   -2.5048    2.1115    1.6827   0   0  -2
       138       6       1    2.3762    2.5428    2.1021  -1   0  -2
       139       6       1    2.0045   -2.3416    2.5792  -1   1  -2
       140       6       1    1.5575   -2.3363    1.8562  -1   1  -2

Bonds

     1     1         1         2
     2     1         2         3
     3     1         3         4
     4     1         4         5
     5     1         5         6
     6     1         6         7
     7     1         7         8
     8     1         8         9
     9     1         9        10
    10     1        11        12
    11     1        12        13
    12     1        13        14
    13     1        14        15
    14     1        15        16
    15     1        16        17
    16     1        17        18
    17     1        18        19
    18     1        19        20
    19     1        20        21
    20     1        21        22
    21     1        22        23
    22     1        23        24
    23     1        24        25
    24     1        25        26
    25     1        26        27
    26     1        27        28
    27     1        28        29
    28     1        29        30
    29     1        31        32
    30     1        32        33
    31     1        33        34
    32     1        34        35
    33     1        35        36
    34     1        36        37
    35     1        37        38
    36     1        38        39
    37     1        39        40
    38     1        40        41
    39     1        41        42
    40     1        42        43
    41     1        43        44
    42     1        44        45
    43     1        45        46
    44     1        46        47
    45     1        47        48
    46     1        48        49
    47     1        49        50
    48     1        51        52
    49     1        52        53
    50     1        53        54
    51     1        54        55
    52     1        55        56
    53     1        56        57
    54     1        57        58
    55     1        58        59
    56     1        59        60
    57     1        60        61
    58     1        61        62
    59     1        62        63
    60     1        63        64
    61     1        64        65
    62     1        65        66
    63     1        66        67
    64     1        67        68
    65     1        68        69
    66     1        69        70
    67     1        70        71
    68     1        71        72
    69     1        72        73
    70     1        73        74
    71     1        74        75
    72     1        75        76
    73     1        76        77
    74     1        77        78
    75     1        78        79
    76     1        79        80
    77     1        81        82
    78     1        82        83
    79     1        83        84
    80     1        84        85
    81     1        85        86
    82     1        86        87
    83     1        87        88
    84     1        88        89
    85     1        89        90
    86     1        90        91
    87     1        91        92
    88     1        92        93
    89     1        93        94
    90     1        94        95
    91     1        95        96
    92     1        96        97
    93     1        97        98
    94     1        98        99
    95     1        99       100
    96     1       100       101
    97     1       101       102
    98     1       102       103
    99     1       103       104
   100     1       104       105
   101     1       105       106
   102     1       106       107
   103     1       107       108
   104     1       108       109
   105     1       109       110
   106     1       111       112
   107     1       112       113
   108     1       113       114
   109     1       114       115
   110     1       115       116
   111     1       116       117
   112     1       117       118
   113     1       118       119
   114     1       119       120
   115     1       120       121
   116     1       121       122
   117     1       122       123
   118     1       123       124
   119     1       124       125
   120     1       125       126
   121     1       126       127
   122     1       127       128
   123     1       128       129
   124     1       129       130
   125     1       130       131
   126     1       131       132
   127     1       132       133
   128     1       133       134
   129     1       134       135
   130     1       135       136
   131     1       136       137
   132     1       137       138
   133     1       138       139
   134     1       139       140
