LAMMPS  data file

         6000  atoms
         5900  bonds
     5800  angles
     5700  dihedrals

           1  atom types
           1  bond types
           1  angle types
           1  dihedral types



-17.3773 17.3773 xlo xhi
-17.3773 17.3773 ylo yhi
-17.3773 17.3773 zlo zhi

Masses

  1  14.0

Atoms 

4025 	 68 	 1 	 -16.7365 	 -7.64775 	 -17.0228 	 0 	 0 	 0
1906 	 32 	 1 	 -0.292278 	 8.6238 	 -3.52567 	 0 	 0 	 0
5955 	 100 	 1 	 -16.8866 	 7.76636 	 -16.9451 	 0 	 0 	 1
5373 	 90 	 1 	 -12.1741 	 -15.2541 	 -15.6902 	 0 	 1 	 0
5372 	 90 	 1 	 -10.7769 	 -15.6876 	 -16.6988 	 0 	 1 	 0
3940 	 66 	 1 	 -9.04233 	 16.983 	 -17.1813 	 0 	 0 	 0
4098 	 69 	 1 	 -4.49091 	 -15.8643 	 -16.1537 	 0 	 0 	 1
1238 	 21 	 1 	 -17.2729 	 13.9613 	 -0.0977486 	 1 	 0 	 0
2729 	 46 	 1 	 -16.9529 	 -13.8333 	 -16.8736 	 1 	 0 	 1
42 	 1 	 1 	 -15.669 	 -15.1202 	 -15.4748 	 0 	 0 	 1
43 	 1 	 1 	 -14.1864 	 -15.0479 	 -16.4489 	 0 	 0 	 1
4087 	 69 	 1 	 -0.965969 	 -11.7067 	 -12.9002 	 0 	 0 	 1
5710 	 96 	 1 	 -6.14046 	 -11.9569 	 -17.3078 	 0 	 0 	 1
5767 	 97 	 1 	 -5.9767 	 -14.1699 	 -16.7464 	 0 	 1 	 0
4391 	 74 	 1 	 -16.7976 	 -2.79214 	 -16.9112 	 1 	 1 	 1
2730 	 46 	 1 	 -16.3686 	 -12.2064 	 -16.6838 	 1 	 0 	 1
3004 	 51 	 1 	 -11.0815 	 -10.9604 	 -17.0113 	 0 	 0 	 0
3943 	 66 	 1 	 -8.6824 	 -14.1679 	 -16.6167 	 0 	 1 	 0
5713 	 96 	 1 	 -3.14244 	 -11.3374 	 -15.7461 	 0 	 0 	 1
5715 	 96 	 1 	 -1.14455 	 -11.7558 	 -16.2518 	 0 	 0 	 1
3 	 1 	 1 	 -15.573 	 -10.218 	 -16.3263 	 0 	 0 	 1
5572 	 93 	 1 	 -0.662832 	 -10.8169 	 -1.06548 	 0 	 0 	 0
1647 	 28 	 1 	 -17.0894 	 2.92326 	 -10.4099 	 0 	 0 	 0
3944 	 66 	 1 	 -8.89821 	 -12.5337 	 -16.9594 	 0 	 1 	 0
5106 	 86 	 1 	 -0.555381 	 11.4162 	 -6.3848 	 0 	 0 	 0
3524 	 59 	 1 	 -11.0957 	 -8.50311 	 -15.478 	 0 	 0 	 1
3532 	 59 	 1 	 -5.21772 	 -9.37968 	 -16.8066 	 0 	 0 	 1
1985 	 34 	 1 	 -3.33495 	 -8.69372 	 -14.7507 	 0 	 0 	 1
1984 	 34 	 1 	 -2.90664 	 -9.51843 	 -16.1445 	 0 	 0 	 1
1983 	 34 	 1 	 -1.30034 	 -8.90246 	 -16.4657 	 0 	 0 	 1
1676 	 28 	 1 	 -17.2294 	 0.798598 	 -13.2548 	 0 	 0 	 0
5912 	 99 	 1 	 -13.8668 	 -7.32304 	 -15.7636 	 0 	 0 	 0
3523 	 59 	 1 	 -11.272 	 -6.8916 	 -14.9085 	 0 	 0 	 1
3942 	 66 	 1 	 -8.42164 	 -15.8247 	 -16.0346 	 0 	 1 	 0
5739 	 96 	 1 	 -0.0120632 	 15.062 	 -12.8459 	 0 	 -1 	 1
1982 	 34 	 1 	 -1.87328 	 -7.56757 	 -15.4619 	 0 	 0 	 1
2378 	 40 	 1 	 -9.44919 	 4.24972 	 -16.9594 	 0 	 0 	 1
219 	 4 	 1 	 -4.42191 	 -3.19222 	 -0.692832 	 -1 	 0 	 0
3522 	 59 	 1 	 -11.7457 	 -6.33102 	 -16.4467 	 0 	 0 	 1
1634 	 28 	 1 	 -9.21472 	 -3.04615 	 -16.7722 	 0 	 0 	 0
2430 	 41 	 1 	 -7.11897 	 -6.13041 	 -15.2835 	 0 	 0 	 1
2406 	 41 	 1 	 -6.40532 	 -1.4042 	 -17.1576 	 0 	 0 	 1
3993 	 67 	 1 	 -14.4928 	 5.00246 	 -16.8704 	 1 	 0 	 0
1981 	 34 	 1 	 -2.19646 	 -5.92898 	 -15.0394 	 0 	 0 	 1
845 	 15 	 1 	 -8.60503 	 10.0986 	 -0.306081 	 0 	 0 	 0
3520 	 59 	 1 	 -12.7411 	 -4.12389 	 -16.5491 	 0 	 0 	 1
2445 	 41 	 1 	 -3.36098 	 -5.03229 	 -17.3276 	 0 	 0 	 1
114 	 2 	 1 	 -0.835208 	 -3.92243 	 -11.1181 	 0 	 0 	 0
4028 	 68 	 1 	 -15.8311 	 -4.6077 	 -16.154 	 0 	 0 	 0
4029 	 68 	 1 	 -15.4777 	 -3.00656 	 -15.7358 	 0 	 0 	 0
1633 	 28 	 1 	 -9.45391 	 -4.74652 	 -16.9629 	 0 	 0 	 0
2431 	 41 	 1 	 -7.37241 	 -5.29109 	 -16.8028 	 0 	 0 	 1
2410 	 41 	 1 	 -5.66455 	 -3.69323 	 -16.1365 	 0 	 0 	 1
3196 	 54 	 1 	 -8.30383 	 -1.47808 	 -0.346298 	 0 	 0 	 0
749 	 13 	 1 	 -1.3586 	 2.55851 	 -17.2783 	 0 	 0 	 1
2890 	 49 	 1 	 -0.550523 	 -15.6448 	 -1.10557 	 0 	 0 	 0
5114 	 86 	 1 	 -1.09673 	 12.6649 	 -2.99265 	 0 	 0 	 0
5492 	 92 	 1 	 -16.7189 	 -12.7987 	 -9.35708 	 0 	 0 	 0
2411 	 41 	 1 	 -7.07986 	 -4.21896 	 -15.3266 	 0 	 0 	 1
985 	 17 	 1 	 -4.55011 	 -1.83533 	 -17.051 	 0 	 0 	 0
1395 	 24 	 1 	 -17.1533 	 13.1007 	 -2.93984 	 0 	 0 	 0
4386 	 74 	 1 	 -13.0193 	 -0.528362 	 -16.2172 	 1 	 1 	 1
4018 	 67 	 1 	 -9.54008 	 0.578551 	 -16.2505 	 1 	 0 	 0
4020 	 67 	 1 	 -8.43485 	 -1.29302 	 -16.799 	 1 	 0 	 0
3748 	 63 	 1 	 -8.17183 	 17.1022 	 -0.393356 	 0 	 -1 	 0
2098 	 35 	 1 	 -0.309067 	 0.992408 	 -4.6792 	 -1 	 0 	 0
4383 	 74 	 1 	 -15.0409 	 -1.16711 	 -13.3268 	 1 	 1 	 1
4019 	 67 	 1 	 -9.42901 	 -0.908707 	 -15.3892 	 1 	 0 	 0
5374 	 90 	 1 	 -12.297 	 -14.7415 	 -17.266 	 0 	 1 	 0
4149 	 70 	 1 	 -11.8687 	 6.45379 	 -0.370334 	 0 	 -1 	 0
2380 	 40 	 1 	 -8.55487 	 2.30855 	 -15.8738 	 0 	 0 	 1
2397 	 40 	 1 	 -2.88926 	 1.04788 	 -17.1551 	 0 	 0 	 1
1478 	 25 	 1 	 -14.7403 	 -13.1492 	 -1.59765 	 0 	 0 	 0
5122 	 86 	 1 	 -0.489342 	 13.1857 	 -0.625865 	 0 	 0 	 0
5113 	 86 	 1 	 -0.152939 	 13.1041 	 -4.35915 	 0 	 0 	 0
14 	 1 	 1 	 -17.2747 	 -3.71745 	 -8.11133 	 0 	 0 	 1
2394 	 40 	 1 	 -4.51045 	 2.33485 	 -16.1679 	 0 	 0 	 1
3782 	 64 	 1 	 -17.2891 	 13.3274 	 -11.4156 	 0 	 0 	 1
3998 	 67 	 1 	 -13.8575 	 3.18986 	 -15.48 	 1 	 0 	 0
2376 	 40 	 1 	 -12.4538 	 5.12087 	 -16.8434 	 0 	 0 	 1
2377 	 40 	 1 	 -10.9684 	 4.46336 	 -16.1522 	 0 	 0 	 1
2383 	 40 	 1 	 -5.72261 	 3.72274 	 -17.0391 	 0 	 0 	 1
4070 	 68 	 1 	 -1.12204 	 4.89309 	 -16.6776 	 0 	 0 	 0
5969 	 100 	 1 	 -7.65627 	 5.92729 	 -15.7429 	 0 	 0 	 1
4758 	 80 	 1 	 -17.3182 	 5.17414 	 -6.06888 	 0 	 0 	 0
5956 	 100 	 1 	 -15.3336 	 6.98751 	 -16.7234 	 0 	 0 	 1
1866 	 32 	 1 	 -0.939246 	 -1.4395 	 -16.6388 	 0 	 0 	 0
1645 	 28 	 1 	 -17.3476 	 1.37291 	 -11.4123 	 0 	 0 	 0
2667 	 45 	 1 	 -16.5083 	 12.347 	 -16.3059 	 0 	 0 	 1
5234 	 88 	 1 	 -0.211267 	 -4.30025 	 -5.10806 	 0 	 0 	 0
725 	 13 	 1 	 -3.51642 	 6.9778 	 -16.1401 	 0 	 0 	 1
722 	 13 	 1 	 -1.56935 	 7.78272 	 -16.749 	 0 	 0 	 1
5711 	 96 	 1 	 -5.06721 	 -11.4247 	 -15.9292 	 0 	 0 	 1
5966 	 100 	 1 	 -7.05297 	 8.26905 	 -16.5253 	 0 	 0 	 1
3127 	 53 	 1 	 -0.693507 	 12.3075 	 -12.0542 	 -1 	 0 	 0
4080 	 68 	 1 	 -3.03316 	 10.2727 	 -16.5919 	 0 	 0 	 0
2670 	 45 	 1 	 -15.7195 	 10.5309 	 -17.1055 	 0 	 0 	 1
4623 	 78 	 1 	 -14.7496 	 8.96383 	 -16.6881 	 0 	 0 	 1
5995 	 100 	 1 	 -8.9796 	 9.66173 	 -16.5699 	 0 	 0 	 1
5760 	 96 	 1 	 -5.78077 	 9.94948 	 -16.3921 	 0 	 -1 	 1
5753 	 96 	 1 	 -1.60655 	 9.756 	 -15.2689 	 0 	 -1 	 1
2796 	 47 	 1 	 -11.7137 	 12.3895 	 -17.1527 	 0 	 -1 	 0
2669 	 45 	 1 	 -14.7476 	 11.9617 	 -16.6368 	 0 	 0 	 1
5982 	 100 	 1 	 -7.65365 	 10.9246 	 -15.9562 	 0 	 0 	 1
5759 	 96 	 1 	 -6.2366 	 11.4983 	 -16.9734 	 0 	 -1 	 1
1130 	 19 	 1 	 -17.2841 	 -0.143337 	 -0.158881 	 1 	 0 	 0
1746 	 30 	 1 	 -0.206188 	 1.53455 	 -8.79884 	 0 	 0 	 0
5981 	 100 	 1 	 -9.23109 	 11.4563 	 -16.08 	 0 	 0 	 1
5640 	 94 	 1 	 -3.8781 	 13.3762 	 -16.5013 	 0 	 0 	 0
5750 	 96 	 1 	 -2.35184 	 13.0864 	 -15.4034 	 0 	 -1 	 1
5749 	 96 	 1 	 -1.87624 	 11.9593 	 -16.6042 	 0 	 -1 	 1
2668 	 45 	 1 	 -15.5157 	 11.6537 	 -15.0603 	 0 	 0 	 1
5453 	 91 	 1 	 -0.197442 	 3.89535 	 -6.30523 	 0 	 0 	 1
4345 	 73 	 1 	 -17.3366 	 6.47852 	 -13.028 	 0 	 0 	 1
4418 	 74 	 1 	 -17.1111 	 -10.5561 	 -13.3168 	 1 	 1 	 1
3919 	 66 	 1 	 -7.76744 	 13.6148 	 -16.0062 	 0 	 0 	 0
5735 	 96 	 1 	 -3.23186 	 15.5257 	 -16.843 	 0 	 -1 	 1
5235 	 88 	 1 	 -1.3197 	 -5.71065 	 -4.70113 	 0 	 0 	 0
517 	 9 	 1 	 -17.2899 	 5.05535 	 -0.0981101 	 1 	 0 	 0
4101 	 69 	 1 	 -4.03374 	 -12.779 	 -17.3222 	 0 	 0 	 1
4293 	 72 	 1 	 -5.64408 	 15.3649 	 -1.01967 	 0 	 -1 	 0
4419 	 74 	 1 	 -17.1525 	 -10.8095 	 -15.1045 	 1 	 1 	 1
3918 	 66 	 1 	 -7.66575 	 15.3267 	 -15.9026 	 0 	 0 	 0
1932 	 33 	 1 	 -16.0023 	 -9.50713 	 -10.3287 	 0 	 0 	 0
5731 	 96 	 1 	 -0.545753 	 16.0097 	 -16.1176 	 0 	 -1 	 1
5607 	 94 	 1 	 -15.0309 	 15.708 	 -16.0204 	 0 	 0 	 0
5371 	 90 	 1 	 -11.1783 	 -17.2994 	 -16.8527 	 0 	 1 	 0
3937 	 66 	 1 	 -6.38905 	 -16.8894 	 -15.7596 	 0 	 1 	 0
5911 	 99 	 1 	 -14.4785 	 -8.6026 	 -16.6387 	 0 	 0 	 0
31 	 1 	 1 	 -16.3237 	 -16.2778 	 -13.7282 	 0 	 0 	 1
5370 	 90 	 1 	 -10.5869 	 -17.094 	 -15.1469 	 0 	 1 	 0
48 	 1 	 1 	 -13.0902 	 15.6221 	 -17.1131 	 0 	 -1 	 1
45 	 1 	 1 	 -13.5941 	 17.3044 	 -16.3589 	 0 	 -1 	 1
3960 	 66 	 1 	 -11.9165 	 -13.3549 	 -15.4676 	 0 	 1 	 0
3941 	 66 	 1 	 -8.89001 	 17.331 	 -15.5352 	 0 	 0 	 0
5766 	 97 	 1 	 -6.71403 	 -15.0548 	 -15.551 	 0 	 1 	 0
4099 	 69 	 1 	 -2.99963 	 -16.1312 	 -16.9896 	 0 	 0 	 1
4093 	 69 	 1 	 -2.04781 	 -16.3683 	 -15.4196 	 0 	 0 	 1
4092 	 69 	 1 	 -1.45245 	 -14.8339 	 -14.9015 	 0 	 0 	 1
3946 	 66 	 1 	 -9.74154 	 -12.2069 	 -15.3371 	 0 	 1 	 0
5765 	 97 	 1 	 -7.68817 	 -13.765 	 -15.0494 	 0 	 1 	 0
4102 	 69 	 1 	 -4.26877 	 -13.4398 	 -15.7185 	 0 	 0 	 1
3098 	 52 	 1 	 -17.3565 	 1.22272 	 -4.55218 	 1 	 0 	 0
3958 	 66 	 1 	 -12.0088 	 -10.8716 	 -14.6823 	 0 	 1 	 0
3959 	 66 	 1 	 -12.549 	 -11.8194 	 -16.0857 	 0 	 1 	 0
3945 	 66 	 1 	 -8.43075 	 -11.2909 	 -15.8828 	 0 	 1 	 0
5764 	 97 	 1 	 -6.54562 	 -12.6 	 -15.2686 	 0 	 1 	 0
5763 	 97 	 1 	 -7.29379 	 -11.5022 	 -14.1591 	 0 	 1 	 0
4084 	 69 	 1 	 -3.81576 	 -12.101 	 -13.2913 	 0 	 0 	 1
5714 	 96 	 1 	 -2.50431 	 -12.9204 	 -16.3296 	 0 	 0 	 1
4 	 1 	 1 	 -16.7031 	 -9.10598 	 -15.866 	 0 	 0 	 1
3003 	 51 	 1 	 -9.8517 	 -10.1516 	 -15.8198 	 0 	 0 	 0
3531 	 59 	 1 	 -6.78206 	 -8.87168 	 -16.2306 	 0 	 0 	 1
4083 	 69 	 1 	 -3.09371 	 -10.5289 	 -13.5222 	 0 	 0 	 1
3938 	 66 	 1 	 -6.01945 	 -16.0973 	 -17.2934 	 0 	 1 	 0
5 	 1 	 1 	 -15.7536 	 -8.6524 	 -14.5444 	 0 	 0 	 1
3957 	 66 	 1 	 -13.3927 	 -10.7332 	 -13.6067 	 0 	 1 	 0
2208 	 37 	 1 	 -1.22353 	 -10.4141 	 -10.934 	 0 	 1 	 0
5745 	 96 	 1 	 -0.0584156 	 13.6798 	 -16.2456 	 0 	 -1 	 1
4082 	 69 	 1 	 -4.55918 	 -10.3629 	 -14.349 	 0 	 0 	 1
6 	 1 	 1 	 -14.032 	 -8.27841 	 -14.191 	 0 	 0 	 1
3528 	 59 	 1 	 -9.08861 	 -8.12882 	 -15.9013 	 0 	 0 	 1
3533 	 59 	 1 	 -4.83145 	 -7.85255 	 -16.2093 	 0 	 0 	 1
1986 	 34 	 1 	 -2.77931 	 -7.8155 	 -13.4254 	 0 	 0 	 1
1987 	 34 	 1 	 -1.21791 	 -8.02751 	 -13.9559 	 0 	 0 	 1
3541 	 60 	 1 	 -0.0401797 	 -16.1389 	 -5.26183 	 0 	 0 	 0
5913 	 99 	 1 	 -15.2171 	 -6.30166 	 -15.3849 	 0 	 0 	 0
687 	 12 	 1 	 -8.23223 	 -6.93232 	 -13.8223 	 1 	 0 	 0
2429 	 41 	 1 	 -5.95926 	 -6.97077 	 -14.2929 	 0 	 0 	 1
1988 	 34 	 1 	 -0.564439 	 -6.67561 	 -12.9468 	 0 	 0 	 1
5914 	 99 	 1 	 -16.4671 	 -5.80735 	 -14.3997 	 0 	 0 	 0
1638 	 28 	 1 	 -14.0606 	 -4.38524 	 -14.91 	 0 	 0 	 0
1637 	 28 	 1 	 -12.4521 	 -3.48995 	 -14.8441 	 0 	 0 	 0
1632 	 28 	 1 	 -10.6025 	 -5.16322 	 -15.771 	 0 	 0 	 0
2413 	 41 	 1 	 -4.77613 	 -6.03445 	 -16.0134 	 0 	 0 	 1
2414 	 41 	 1 	 -3.88029 	 -6.93772 	 -14.9443 	 0 	 0 	 1
2415 	 41 	 1 	 -3.95823 	 -5.187 	 -14.1749 	 0 	 0 	 1
5818 	 97 	 1 	 -0.220665 	 -6.30798 	 -14.9735 	 0 	 1 	 0
5730 	 96 	 1 	 -1.42779 	 17.3433 	 -16.8818 	 0 	 -1 	 1
1639 	 28 	 1 	 -15.5458 	 -4.18251 	 -14.0953 	 0 	 0 	 0
1636 	 28 	 1 	 -11.1473 	 -3.31523 	 -15.8856 	 0 	 0 	 0
1640 	 28 	 1 	 -17.0952 	 -4.10486 	 -14.9205 	 0 	 0 	 0
4030 	 68 	 1 	 -14.416 	 -2.26355 	 -14.6276 	 0 	 0 	 0
1635 	 28 	 1 	 -10.4782 	 -1.89505 	 -16.4913 	 0 	 0 	 0
4047 	 68 	 1 	 -8.10911 	 -2.68179 	 -15.343 	 0 	 0 	 0
2412 	 41 	 1 	 -5.63155 	 -5.15845 	 -14.7415 	 0 	 0 	 1
2422 	 41 	 1 	 -3.8643 	 -3.6091 	 -15.1257 	 0 	 0 	 1
1867 	 32 	 1 	 -0.841985 	 -2.02487 	 -15.1086 	 0 	 0 	 0
1908 	 32 	 1 	 -0.0913597 	 6.16393 	 -2.36579 	 0 	 0 	 0
4382 	 74 	 1 	 -15.7348 	 -1.01868 	 -14.9605 	 1 	 1 	 1
4031 	 68 	 1 	 -12.8201 	 -1.5094 	 -14.7414 	 0 	 0 	 0
4048 	 68 	 1 	 -6.91778 	 -1.37088 	 -14.9759 	 0 	 0 	 0
984 	 17 	 1 	 -4.64979 	 -1.65589 	 -15.3304 	 0 	 0 	 0
986 	 17 	 1 	 -3.01211 	 -1.60447 	 -16.2801 	 0 	 0 	 0
4384 	 74 	 1 	 -13.836 	 0.0357589 	 -13.889 	 1 	 1 	 1
4385 	 74 	 1 	 -13.3038 	 0.856204 	 -15.2515 	 1 	 1 	 1
4017 	 67 	 1 	 -10.9298 	 1.50376 	 -15.7852 	 1 	 0 	 0
4049 	 68 	 1 	 -7.53303 	 0.0205126 	 -15.7449 	 0 	 0 	 0
2398 	 40 	 1 	 -2.02491 	 0.132895 	 -16.0297 	 0 	 0 	 1
3811 	 64 	 1 	 -17.2829 	 11.5374 	 -14.4542 	 0 	 0 	 1
4001 	 67 	 1 	 -12.0952 	 3.32219 	 -15.0379 	 1 	 0 	 0
4054 	 68 	 1 	 -9.6586 	 0.992226 	 -14.3888 	 0 	 0 	 0
2381 	 40 	 1 	 -6.83511 	 2.16273 	 -15.556 	 0 	 0 	 1
983 	 17 	 1 	 -3.97879 	 -0.0369364 	 -15.4269 	 0 	 0 	 0
509 	 9 	 1 	 -15.915 	 7.87677 	 -0.333706 	 1 	 0 	 0
3991 	 67 	 1 	 -16.3264 	 3.4479 	 -16.0605 	 1 	 0 	 0
3999 	 67 	 1 	 -14.0449 	 2.69755 	 -13.8107 	 1 	 0 	 0
4002 	 67 	 1 	 -10.5689 	 3.62846 	 -14.2225 	 1 	 0 	 0
2392 	 40 	 1 	 -4.8453 	 2.77768 	 -13.2435 	 0 	 0 	 1
2393 	 40 	 1 	 -4.67932 	 1.66684 	 -14.6544 	 0 	 0 	 1
4065 	 68 	 1 	 -2.44491 	 2.41578 	 -15.7806 	 0 	 0 	 0
5970 	 100 	 1 	 -7.33852 	 4.3067 	 -15.7511 	 0 	 0 	 1
2391 	 40 	 1 	 -6.10304 	 3.9182 	 -12.6677 	 0 	 0 	 1
2385 	 40 	 1 	 -4.30124 	 4.23022 	 -16.1411 	 0 	 0 	 1
4066 	 68 	 1 	 -0.918956 	 2.39191 	 -14.9326 	 0 	 0 	 0
3992 	 67 	 1 	 -15.883 	 5.17301 	 -15.8824 	 1 	 0 	 0
3804 	 64 	 1 	 -13.5897 	 6.03059 	 -15.2471 	 0 	 0 	 1
5968 	 100 	 1 	 -5.99205 	 6.50779 	 -15.5672 	 0 	 0 	 1
2384 	 40 	 1 	 -5.67876 	 3.65778 	 -15.2408 	 0 	 0 	 1
4069 	 68 	 1 	 -2.48917 	 5.36017 	 -15.8872 	 0 	 0 	 0
4330 	 73 	 1 	 -15.6791 	 0.972493 	 -15.5731 	 0 	 0 	 1
3805 	 64 	 1 	 -13.542 	 7.66187 	 -15.7466 	 0 	 0 	 1
5967 	 100 	 1 	 -5.73749 	 8.20872 	 -15.3684 	 0 	 0 	 1
1302 	 22 	 1 	 -0.142401 	 7.15564 	 -14.4823 	 0 	 0 	 0
116 	 2 	 1 	 -0.219604 	 -2.86564 	 -8.55489 	 0 	 0 	 0
3808 	 64 	 1 	 -16.796 	 7.79221 	 -14.7257 	 0 	 0 	 1
5962 	 100 	 1 	 -12.1813 	 9.08187 	 -15.9023 	 0 	 0 	 1
5964 	 100 	 1 	 -9.91753 	 6.88994 	 -15.2798 	 0 	 0 	 1
1300 	 22 	 1 	 -2.69665 	 7.07616 	 -13.6828 	 0 	 0 	 0
1301 	 22 	 1 	 -1.49892 	 8.15007 	 -14.3927 	 0 	 0 	 0
3475 	 58 	 1 	 -11.6872 	 -9.89336 	 -0.529861 	 0 	 0 	 0
3806 	 64 	 1 	 -14.9844 	 7.36365 	 -14.8584 	 0 	 0 	 1
5996 	 100 	 1 	 -10.2056 	 8.78649 	 -15.5994 	 0 	 0 	 1
5754 	 96 	 1 	 -3.02035 	 8.6401 	 -15.3923 	 0 	 -1 	 1
4622 	 78 	 1 	 -14.2609 	 10.3888 	 -15.7756 	 0 	 0 	 1
4621 	 78 	 1 	 -12.9966 	 11.3906 	 -16.3357 	 0 	 0 	 1
6000 	 100 	 1 	 -11.0605 	 10.6788 	 -16.7041 	 0 	 0 	 1
5980 	 100 	 1 	 -8.87916 	 12.0068 	 -14.421 	 0 	 0 	 1
5751 	 96 	 1 	 -2.58946 	 11.3547 	 -14.8138 	 0 	 -1 	 1
5752 	 96 	 1 	 -1.9076 	 10.1702 	 -13.6202 	 0 	 -1 	 1
3471 	 58 	 1 	 -11.2302 	 -11.8991 	 -0.0875421 	 0 	 0 	 0
5602 	 94 	 1 	 -13.3036 	 13.0799 	 -15.3459 	 0 	 0 	 0
5758 	 96 	 1 	 -4.77371 	 11.5026 	 -16.1225 	 0 	 -1 	 1
3123 	 53 	 1 	 -2.01185 	 12.6573 	 -13.4753 	 -1 	 0 	 0
5601 	 94 	 1 	 -14.9128 	 13.6261 	 -15.2462 	 0 	 0 	 0
5604 	 94 	 1 	 -13.4079 	 13.686 	 -17.3418 	 0 	 0 	 0
3914 	 66 	 1 	 -11.2035 	 13.4186 	 -14.4366 	 0 	 0 	 0
3920 	 66 	 1 	 -5.92335 	 13.1823 	 -16.4526 	 0 	 0 	 0
2602 	 44 	 1 	 -16.5389 	 13.7514 	 -14.0048 	 1 	 -1 	 1
5600 	 94 	 1 	 -13.8896 	 14.8983 	 -14.6996 	 0 	 0 	 0
5599 	 94 	 1 	 -12.3286 	 14.7306 	 -14.0427 	 0 	 0 	 0
3916 	 66 	 1 	 -9.41681 	 15.3765 	 -15.2324 	 0 	 0 	 0
3917 	 66 	 1 	 -8.03327 	 16.057 	 -14.4006 	 0 	 0 	 0
3936 	 66 	 1 	 -6.01297 	 16.1605 	 -15.5522 	 0 	 0 	 0
5736 	 96 	 1 	 -2.20445 	 15.2957 	 -15.4469 	 0 	 -1 	 1
2600 	 44 	 1 	 -16.5436 	 16.6303 	 -15.2282 	 1 	 -1 	 1
4097 	 69 	 1 	 -3.80237 	 17.2689 	 -15.9186 	 0 	 -1 	 1
1 	 1 	 1 	 -12.8454 	 -9.24295 	 -15.8131 	 0 	 0 	 1
5107 	 86 	 1 	 -0.349135 	 13.2349 	 -6.33514 	 0 	 0 	 0
5598 	 94 	 1 	 -12.3819 	 16.1947 	 -15.1117 	 0 	 0 	 0
5597 	 94 	 1 	 -12.8009 	 -16.8127 	 -14.6683 	 0 	 1 	 0
5363 	 90 	 1 	 -6.91646 	 -15.5599 	 -13.5214 	 0 	 1 	 0
4096 	 69 	 1 	 -4.27205 	 17.19 	 -14.3039 	 0 	 -1 	 1
4095 	 69 	 1 	 -3.37576 	 15.7701 	 -13.9701 	 0 	 -1 	 1
4094 	 69 	 1 	 -2.43267 	 17.1336 	 -14.394 	 0 	 -1 	 1
30 	 1 	 1 	 -16.3604 	 -15.5066 	 -12.2011 	 0 	 0 	 1
44 	 1 	 1 	 -14.411 	 -16.2928 	 -15.2728 	 0 	 0 	 1
5366 	 90 	 1 	 -9.98191 	 -15.3362 	 -15.0144 	 0 	 1 	 0
5364 	 90 	 1 	 -8.40373 	 -14.452 	 -13.0914 	 0 	 1 	 0
3947 	 66 	 1 	 -10.6856 	 -11.9996 	 -13.8578 	 0 	 1 	 0
5365 	 90 	 1 	 -9.64382 	 -13.8925 	 -14.1151 	 0 	 1 	 0
4106 	 69 	 1 	 -5.89814 	 -13.9259 	 -13.902 	 0 	 0 	 1
4103 	 69 	 1 	 -3.43973 	 -13.8139 	 -14.2358 	 0 	 0 	 1
1138 	 19 	 1 	 -17.1982 	 2.55499 	 -2.31713 	 1 	 0 	 0
3954 	 66 	 1 	 -15.4714 	 -13.0988 	 -14.8404 	 0 	 1 	 0
3951 	 66 	 1 	 -12.4899 	 -12.2968 	 -12.7228 	 0 	 1 	 0
5762 	 97 	 1 	 -7.20199 	 -12.9229 	 -13.0734 	 0 	 1 	 0
4110 	 69 	 1 	 -1.80689 	 -12.2687 	 -14.5201 	 0 	 0 	 1
487 	 9 	 1 	 -16.9121 	 8.73418 	 -4.77562 	 1 	 0 	 0
3955 	 66 	 1 	 -15.228 	 -11.5267 	 -14.0846 	 0 	 1 	 0
3956 	 66 	 1 	 -13.6465 	 -12.0895 	 -14.655 	 0 	 1 	 0
4081 	 69 	 1 	 -4.90035 	 -9.85185 	 -12.6731 	 0 	 0 	 1
4111 	 69 	 1 	 -1.70698 	 -10.5228 	 -14.5959 	 0 	 0 	 1
3002 	 51 	 1 	 -10.0204 	 -9.56534 	 -14.1524 	 0 	 0 	 0
3536 	 59 	 1 	 -7.8514 	 -10.1555 	 -12.69 	 0 	 0 	 1
2006 	 34 	 1 	 -1.91167 	 -9.10956 	 -12.109 	 0 	 0 	 1
2007 	 34 	 1 	 -0.500054 	 -9.60275 	 -12.9562 	 0 	 0 	 1
688 	 12 	 1 	 -7.91757 	 -8.48542 	 -14.4885 	 1 	 0 	 0
3535 	 59 	 1 	 -6.5489 	 -9.24958 	 -13.4802 	 0 	 0 	 1
3534 	 59 	 1 	 -5.41451 	 -8.59034 	 -14.8025 	 0 	 0 	 1
5915 	 99 	 1 	 -16.8586 	 -5.15916 	 -12.884 	 0 	 0 	 0
8 	 1 	 1 	 -14.7871 	 -5.82198 	 -11.988 	 0 	 0 	 1
1572 	 27 	 1 	 -11.9746 	 -8.23663 	 -12.7959 	 0 	 0 	 1
686 	 12 	 1 	 -9.91973 	 -7.5395 	 -13.7618 	 1 	 0 	 0
2428 	 41 	 1 	 -4.8227 	 -7.70142 	 -13.0214 	 0 	 0 	 1
2427 	 41 	 1 	 -3.71371 	 -7.96409 	 -11.6222 	 0 	 0 	 1
1989 	 34 	 1 	 -0.496056 	 -8.06497 	 -11.9551 	 0 	 0 	 1
681 	 12 	 1 	 -13.4308 	 -4.76635 	 -13.0989 	 1 	 0 	 0
1999 	 34 	 1 	 -5.7647 	 -6.18224 	 -12.1976 	 0 	 0 	 1
113 	 2 	 1 	 -0.342371 	 -3.12044 	 -12.6616 	 0 	 0 	 0
683 	 12 	 1 	 -11.5758 	 -4.4584 	 -12.5267 	 1 	 0 	 0
1631 	 28 	 1 	 -9.47079 	 -4.30513 	 -14.8145 	 0 	 0 	 0
2416 	 41 	 1 	 -4.54601 	 -4.44187 	 -12.6193 	 0 	 0 	 1
2424 	 41 	 1 	 -0.838935 	 -4.51134 	 -13.6141 	 0 	 0 	 1
3997 	 67 	 1 	 -14.9027 	 2.69194 	 -16.8681 	 1 	 0 	 0
4032 	 68 	 1 	 -12.7474 	 -2.17703 	 -13.1663 	 0 	 0 	 0
4033 	 68 	 1 	 -11.136 	 -2.526 	 -13.7971 	 0 	 0 	 0
4046 	 68 	 1 	 -8.01995 	 -3.35853 	 -13.8001 	 0 	 0 	 0
2421 	 41 	 1 	 -4.12682 	 -2.95509 	 -13.6038 	 0 	 0 	 1
2423 	 41 	 1 	 -2.19984 	 -3.91277 	 -14.7511 	 0 	 0 	 1
1642 	 28 	 1 	 -16.5104 	 -2.85898 	 -12.2662 	 0 	 0 	 0
4381 	 74 	 1 	 -16.3725 	 -2.25495 	 -13.9354 	 1 	 1 	 1
2420 	 41 	 1 	 -5.83481 	 -2.55053 	 -13.957 	 0 	 0 	 1
987 	 17 	 1 	 -2.92268 	 -1.61236 	 -14.5228 	 0 	 0 	 0
1490 	 25 	 1 	 -17.2965 	 -10.0919 	 -1.45731 	 0 	 0 	 0
1677 	 28 	 1 	 -15.5523 	 0.835378 	 -13.8136 	 0 	 0 	 0
4015 	 67 	 1 	 -11.6018 	 0.679871 	 -14.2024 	 1 	 0 	 0
4016 	 67 	 1 	 -11.2393 	 -0.128704 	 -15.7732 	 1 	 0 	 0
4050 	 68 	 1 	 -8.04949 	 0.214812 	 -14.0299 	 0 	 0 	 0
982 	 17 	 1 	 -5.57676 	 0.011113 	 -14.5524 	 0 	 0 	 0
2399 	 40 	 1 	 -1.65114 	 -0.360609 	 -14.4347 	 0 	 0 	 1
1678 	 28 	 1 	 -15.6782 	 2.43729 	 -14.4591 	 0 	 0 	 0
4055 	 68 	 1 	 -10.3776 	 1.7848 	 -13.1549 	 0 	 0 	 0
4052 	 68 	 1 	 -7.00902 	 2.05323 	 -12.9504 	 0 	 0 	 0
4061 	 68 	 1 	 -4.244 	 2.89038 	 -11.3622 	 0 	 0 	 0
1679 	 28 	 1 	 -16.4965 	 3.51083 	 -13.3314 	 0 	 0 	 0
4000 	 67 	 1 	 -12.3621 	 2.59267 	 -13.5418 	 1 	 0 	 0
4053 	 68 	 1 	 -8.57376 	 2.27815 	 -13.9442 	 0 	 0 	 0
4064 	 68 	 1 	 -2.72133 	 2.78443 	 -14.1074 	 0 	 0 	 0
443 	 8 	 1 	 -0.646689 	 3.37006 	 -0.554208 	 0 	 0 	 0
4347 	 73 	 1 	 -14.8234 	 4.71219 	 -14.1735 	 0 	 0 	 1
4003 	 67 	 1 	 -9.40787 	 3.63438 	 -12.9932 	 1 	 0 	 0
5971 	 100 	 1 	 -8.85396 	 3.9032 	 -15.1327 	 0 	 0 	 1
2390 	 40 	 1 	 -6.307 	 5.0221 	 -11.3974 	 0 	 0 	 1
2386 	 40 	 1 	 -3.75719 	 4.07739 	 -14.5645 	 0 	 0 	 1
4067 	 68 	 1 	 -1.66382 	 3.99284 	 -14.9081 	 0 	 0 	 0
4346 	 73 	 1 	 -16.3104 	 5.24663 	 -13.6265 	 0 	 0 	 1
3803 	 64 	 1 	 -12.1337 	 5.25704 	 -14.7777 	 0 	 0 	 1
5972 	 100 	 1 	 -8.12967 	 4.95323 	 -14.0349 	 0 	 0 	 1
3800 	 64 	 1 	 -13.2957 	 7.26237 	 -13.0608 	 0 	 0 	 1
3801 	 64 	 1 	 -11.5247 	 7.17969 	 -13.2978 	 0 	 0 	 1
3802 	 64 	 1 	 -10.6778 	 5.84233 	 -14.142 	 0 	 0 	 1
5963 	 100 	 1 	 -11.587 	 7.48056 	 -15.4862 	 0 	 0 	 1
5976 	 100 	 1 	 -7.79343 	 8.90629 	 -15.0164 	 0 	 0 	 1
5975 	 100 	 1 	 -8.06436 	 7.26569 	 -14.4505 	 0 	 0 	 1
4068 	 68 	 1 	 -1.54086 	 5.65879 	 -14.5228 	 0 	 0 	 0
3807 	 64 	 1 	 -15.7983 	 8.05045 	 -13.2677 	 0 	 0 	 1
5977 	 100 	 1 	 -6.44866 	 9.93358 	 -14.4983 	 0 	 0 	 1
5755 	 96 	 1 	 -3.76459 	 9.21474 	 -13.9842 	 0 	 -1 	 1
1299 	 22 	 1 	 -4.47326 	 7.36157 	 -14.0641 	 0 	 0 	 0
3796 	 64 	 1 	 -17.1931 	 9.43161 	 -12.9576 	 0 	 0 	 1
3794 	 64 	 1 	 -14.5748 	 9.51503 	 -12.7735 	 0 	 0 	 1
3793 	 64 	 1 	 -14.0875 	 9.05233 	 -14.4956 	 0 	 0 	 1
5997 	 100 	 1 	 -9.48846 	 8.6515 	 -14.0144 	 0 	 0 	 1
5756 	 96 	 1 	 -4.26774 	 10.8233 	 -14.1585 	 0 	 -1 	 1
2929 	 49 	 1 	 -3.7357 	 10.0979 	 -12.3923 	 0 	 -1 	 0
3795 	 64 	 1 	 -15.8896 	 10.2048 	 -13.6331 	 0 	 0 	 1
3792 	 64 	 1 	 -12.4168 	 8.70795 	 -14.1105 	 0 	 0 	 1
5998 	 100 	 1 	 -9.80807 	 10.3299 	 -14.3974 	 0 	 0 	 1
5978 	 100 	 1 	 -7.98282 	 10.127 	 -13.6304 	 0 	 0 	 1
5757 	 96 	 1 	 -5.86949 	 11.5931 	 -14.7106 	 0 	 -1 	 1
3124 	 53 	 1 	 -2.34231 	 11.5221 	 -12.1695 	 -1 	 0 	 0
3787 	 64 	 1 	 -13.2215 	 11.7596 	 -13.8324 	 0 	 0 	 1
5999 	 100 	 1 	 -11.1533 	 11.1876 	 -15.0286 	 0 	 0 	 1
5979 	 100 	 1 	 -7.42451 	 11.7146 	 -13.5674 	 0 	 0 	 1
2373 	 40 	 1 	 -12.3654 	 1.3932 	 -16.9281 	 0 	 0 	 1
3781 	 64 	 1 	 -15.7325 	 13.9442 	 -11.8081 	 0 	 0 	 1
5603 	 94 	 1 	 -12.2844 	 14.3263 	 -16.0681 	 0 	 0 	 0
1959 	 33 	 1 	 -10.2946 	 14.3937 	 -12.8415 	 0 	 -1 	 0
3913 	 66 	 1 	 -10.5419 	 12.5834 	 -13.0599 	 0 	 0 	 0
3922 	 66 	 1 	 -7.10421 	 14.6067 	 -13.6939 	 0 	 0 	 0
3921 	 66 	 1 	 -6.2383 	 13.4919 	 -14.7446 	 0 	 0 	 0
3122 	 53 	 1 	 -2.96574 	 13.9785 	 -13.5891 	 -1 	 0 	 0
5594 	 94 	 1 	 -13.7855 	 16.6485 	 -13.8165 	 0 	 0 	 0
3915 	 66 	 1 	 -9.38578 	 13.8454 	 -14.5684 	 0 	 0 	 0
3935 	 66 	 1 	 -4.41166 	 15.5077 	 -15.4406 	 0 	 0 	 0
1593 	 27 	 1 	 -10.2271 	 -2.86234 	 -0.663884 	 0 	 0 	 1
2601 	 44 	 1 	 -16.0466 	 15.5612 	 -14.0189 	 1 	 -1 	 1
5369 	 90 	 1 	 -10.8193 	 16.4159 	 -14.0593 	 0 	 0 	 0
5368 	 90 	 1 	 -9.21685 	 16.9941 	 -13.5156 	 0 	 0 	 0
5362 	 90 	 1 	 -7.03433 	 -17.228 	 -12.9813 	 0 	 1 	 0
3934 	 66 	 1 	 -5.18083 	 15.0457 	 -13.976 	 0 	 0 	 0
5737 	 96 	 1 	 -1.12269 	 14.1588 	 -14.716 	 0 	 -1 	 1
32 	 1 	 1 	 -16.6479 	 16.9753 	 -12.8516 	 0 	 -1 	 1
5367 	 90 	 1 	 -8.91356 	 -16.0727 	 -13.81 	 0 	 1 	 0
3932 	 66 	 1 	 -4.98055 	 17.0471 	 -12.5257 	 0 	 0 	 0
5123 	 86 	 1 	 -1.92349 	 13.6262 	 -1.47546 	 0 	 0 	 0
1949 	 33 	 1 	 -10.9405 	 -15.8067 	 -13.2385 	 0 	 0 	 0
4105 	 69 	 1 	 -4.91358 	 -15.4064 	 -14.4247 	 0 	 0 	 1
4104 	 69 	 1 	 -3.38331 	 -15.4856 	 -13.6788 	 0 	 0 	 1
4090 	 69 	 1 	 -0.727127 	 -15.1073 	 -12.6362 	 0 	 0 	 1
28 	 1 	 1 	 -16.9018 	 -13.2043 	 -11.3574 	 0 	 0 	 1
1946 	 33 	 1 	 -14.0194 	 -14.7272 	 -13.0318 	 0 	 0 	 0
1947 	 33 	 1 	 -12.3821 	 -14.4163 	 -13.4635 	 0 	 0 	 0
4107 	 69 	 1 	 -4.72483 	 -13.756 	 -12.6803 	 0 	 0 	 1
4109 	 69 	 1 	 -1.71134 	 -13.6484 	 -13.3496 	 0 	 0 	 1
27 	 1 	 1 	 -16.2838 	 -11.6199 	 -11.2214 	 0 	 0 	 1
3953 	 66 	 1 	 -15.7466 	 -13.277 	 -13.0134 	 0 	 1 	 0
3952 	 66 	 1 	 -14.1546 	 -12.6477 	 -12.9627 	 0 	 1 	 0
3950 	 66 	 1 	 -11.1547 	 -13.5099 	 -12.3828 	 0 	 1 	 0
3948 	 66 	 1 	 -8.97995 	 -11.8168 	 -13.6808 	 0 	 1 	 0
5761 	 97 	 1 	 -5.88797 	 -11.8299 	 -12.51 	 0 	 1 	 0
3949 	 66 	 1 	 -9.50844 	 -12.8631 	 -12.4559 	 0 	 1 	 0
4085 	 69 	 1 	 -4.13435 	 -11.7333 	 -11.6635 	 0 	 0 	 1
3851 	 65 	 1 	 -4.36058 	 5.43445 	 -0.509161 	 0 	 -1 	 0
24 	 1 	 1 	 -15.9438 	 -9.06216 	 -12.57 	 0 	 0 	 1
25 	 1 	 1 	 -14.2615 	 -9.45591 	 -12.5181 	 0 	 0 	 1
3001 	 51 	 1 	 -10.9199 	 -10.3994 	 -12.9136 	 0 	 0 	 0
3538 	 59 	 1 	 -8.5272 	 -9.69043 	 -10.65 	 0 	 0 	 1
23 	 1 	 1 	 -16.4605 	 -7.88539 	 -11.3821 	 0 	 0 	 1
7 	 1 	 1 	 -13.9733 	 -6.93934 	 -13.0901 	 0 	 0 	 1
1571 	 27 	 1 	 -12.5003 	 -9.73637 	 -11.9983 	 0 	 0 	 1
1573 	 27 	 1 	 -10.4818 	 -8.78035 	 -12.0381 	 0 	 0 	 1
689 	 12 	 1 	 -8.45704 	 -8.50668 	 -12.7627 	 1 	 0 	 0
2005 	 34 	 1 	 -3.2128 	 -9.84586 	 -11.2176 	 0 	 0 	 1
1990 	 34 	 1 	 -1.15245 	 -7.70341 	 -10.5028 	 0 	 0 	 1
680 	 12 	 1 	 -12.8627 	 -5.86474 	 -11.9065 	 1 	 0 	 0
2001 	 34 	 1 	 -6.89879 	 -7.61941 	 -10.9479 	 0 	 0 	 1
2426 	 41 	 1 	 -3.52738 	 -6.39656 	 -12.6489 	 0 	 0 	 1
9 	 1 	 1 	 -15.1893 	 -4.19267 	 -11.8496 	 0 	 0 	 1
684 	 12 	 1 	 -11.8332 	 -5.41364 	 -13.9389 	 1 	 0 	 0
685 	 12 	 1 	 -10.943 	 -6.38437 	 -12.8627 	 1 	 0 	 0
2000 	 34 	 1 	 -7.46546 	 -6.5846 	 -12.2073 	 0 	 0 	 1
1998 	 34 	 1 	 -5.30091 	 -5.42554 	 -10.7614 	 0 	 0 	 1
2425 	 41 	 1 	 -2.32655 	 -5.32211 	 -13.057 	 0 	 0 	 1
682 	 12 	 1 	 -12.9464 	 -3.65892 	 -11.8457 	 1 	 0 	 0
1630 	 28 	 1 	 -9.80827 	 -3.85429 	 -13.2256 	 0 	 0 	 0
4045 	 68 	 1 	 -7.87982 	 -5.1585 	 -13.9522 	 0 	 0 	 0
2417 	 41 	 1 	 -5.42589 	 -2.95588 	 -12.1179 	 0 	 0 	 1
61 	 2 	 1 	 -13.7829 	 -2.22075 	 -10.8017 	 0 	 0 	 0
4013 	 67 	 1 	 -13.4832 	 -0.87708 	 -12.1285 	 1 	 0 	 0
1629 	 28 	 1 	 -9.90886 	 -4.29381 	 -11.6342 	 0 	 0 	 0
2419 	 41 	 1 	 -7.23258 	 -1.83749 	 -12.9845 	 0 	 0 	 1
2418 	 41 	 1 	 -5.85968 	 -1.14206 	 -12.2177 	 0 	 0 	 1
4012 	 67 	 1 	 -14.5345 	 0.0870289 	 -11.1353 	 1 	 0 	 0
4014 	 67 	 1 	 -12.0894 	 -0.507415 	 -13.014 	 1 	 0 	 0
4034 	 68 	 1 	 -9.64069 	 -1.61912 	 -13.6 	 0 	 0 	 0
988 	 17 	 1 	 -2.62283 	 -2.11712 	 -12.8535 	 0 	 0 	 0
1643 	 28 	 1 	 -17.2889 	 -1.33051 	 -12.6006 	 0 	 0 	 0
4035 	 68 	 1 	 -9.60121 	 -0.076779 	 -12.8708 	 0 	 0 	 0
4051 	 68 	 1 	 -6.46685 	 0.481561 	 -13.0664 	 0 	 0 	 0
981 	 17 	 1 	 -4.57626 	 -0.842671 	 -13.4625 	 0 	 0 	 0
990 	 17 	 1 	 -2.15159 	 0.423916 	 -11.0983 	 0 	 0 	 0
4007 	 67 	 1 	 -13.1971 	 1.13077 	 -12.1523 	 1 	 0 	 0
4008 	 67 	 1 	 -11.5001 	 1.24166 	 -11.7855 	 1 	 0 	 0
4056 	 68 	 1 	 -8.99568 	 2.03731 	 -12.129 	 0 	 0 	 0
4057 	 68 	 1 	 -8.30374 	 3.41009 	 -11.3145 	 0 	 0 	 0
4060 	 68 	 1 	 -5.92028 	 2.56127 	 -11.4534 	 0 	 0 	 0
4062 	 68 	 1 	 -3.11986 	 1.86885 	 -12.1757 	 0 	 0 	 0
5606 	 94 	 1 	 -15.2173 	 14.2203 	 -17.021 	 0 	 0 	 0
4354 	 73 	 1 	 -14.7245 	 4.63848 	 -11.2489 	 0 	 0 	 1
4353 	 73 	 1 	 -14.7804 	 3.42971 	 -10.033 	 0 	 0 	 1
4006 	 67 	 1 	 -13.6161 	 2.72096 	 -11.6675 	 1 	 0 	 0
4063 	 68 	 1 	 -2.97201 	 1.04533 	 -13.7077 	 0 	 0 	 0
73 	 2 	 1 	 -16.8207 	 -1.67305 	 -8.38156 	 0 	 0 	 0
4348 	 73 	 1 	 -13.7706 	 4.78689 	 -12.7698 	 0 	 0 	 1
2389 	 40 	 1 	 -4.51636 	 4.8486 	 -11.5456 	 0 	 0 	 1
2388 	 40 	 1 	 -5.055 	 6.01899 	 -12.8259 	 0 	 0 	 1
123 	 3 	 1 	 -1.41025 	 4.55654 	 -12.5167 	 0 	 0 	 1
3799 	 64 	 1 	 -14.7474 	 6.38791 	 -13.1072 	 0 	 0 	 1
4349 	 73 	 1 	 -12.3391 	 5.69885 	 -12.6658 	 0 	 0 	 1
5973 	 100 	 1 	 -6.83944 	 5.82432 	 -13.1146 	 0 	 0 	 1
5974 	 100 	 1 	 -6.57533 	 7.49906 	 -13.5748 	 0 	 0 	 1
2387 	 40 	 1 	 -5.08155 	 5.22079 	 -14.4078 	 0 	 0 	 1
3798 	 64 	 1 	 -15.7309 	 6.88182 	 -11.5707 	 0 	 0 	 1
4713 	 79 	 1 	 -9.82502 	 6.57105 	 -12.3832 	 0 	 0 	 1
1298 	 22 	 1 	 -4.64208 	 7.7878 	 -12.3766 	 0 	 0 	 0
121 	 3 	 1 	 -2.19371 	 5.87356 	 -11.1485 	 0 	 0 	 1
1304 	 22 	 1 	 -0.336051 	 6.37791 	 -12.673 	 0 	 0 	 0
5470 	 92 	 1 	 -13.6654 	 8.15414 	 -10.8442 	 0 	 -1 	 0
4714 	 79 	 1 	 -8.62374 	 7.79975 	 -12.4794 	 0 	 0 	 1
1297 	 22 	 1 	 -5.90474 	 7.63774 	 -11.2447 	 0 	 0 	 0
2928 	 49 	 1 	 -2.65198 	 8.84936 	 -12.4481 	 0 	 -1 	 0
5471 	 92 	 1 	 -15.1657 	 9.10097 	 -10.6178 	 0 	 -1 	 0
3791 	 64 	 1 	 -11.813 	 9.02482 	 -12.477 	 0 	 0 	 1
3790 	 64 	 1 	 -10.2862 	 9.76879 	 -12.4728 	 0 	 0 	 1
2930 	 49 	 1 	 -4.83252 	 9.32748 	 -11.2986 	 0 	 -1 	 0
2927 	 49 	 1 	 -1.44797 	 7.73256 	 -11.7169 	 0 	 -1 	 0
3784 	 64 	 1 	 -16.3454 	 12.295 	 -12.9088 	 0 	 0 	 1
3786 	 64 	 1 	 -14.1526 	 13.1304 	 -13.5399 	 0 	 0 	 1
3788 	 64 	 1 	 -13.0677 	 10.6353 	 -12.607 	 0 	 0 	 1
3789 	 64 	 1 	 -11.4586 	 10.6507 	 -13.3338 	 0 	 0 	 1
1294 	 22 	 1 	 -5.49749 	 10.9426 	 -12.4752 	 0 	 0 	 0
3783 	 64 	 1 	 -16.267 	 12.0441 	 -11.2534 	 0 	 0 	 1
3785 	 64 	 1 	 -14.819 	 11.822 	 -12.5343 	 0 	 0 	 1
3912 	 66 	 1 	 -9.54848 	 12.015 	 -11.6722 	 0 	 0 	 0
3923 	 66 	 1 	 -8.25221 	 13.5127 	 -13.2042 	 0 	 0 	 0
3121 	 53 	 1 	 -4.25409 	 12.8131 	 -13.8989 	 -1 	 0 	 0
5593 	 94 	 1 	 -14.8292 	 15.6247 	 -12.7885 	 0 	 0 	 0
1958 	 33 	 1 	 -11.9301 	 14.1968 	 -12.2427 	 0 	 -1 	 0
1960 	 33 	 1 	 -9.16157 	 14.1867 	 -11.3939 	 0 	 -1 	 0
3927 	 66 	 1 	 -5.02965 	 14.5555 	 -11.1107 	 0 	 0 	 0
3929 	 66 	 1 	 -3.40723 	 13.3715 	 -11.8544 	 0 	 0 	 0
3126 	 53 	 1 	 -0.851514 	 13.8676 	 -11.0729 	 -1 	 0 	 0
1961 	 33 	 1 	 -8.88364 	 15.5501 	 -12.4547 	 0 	 -1 	 0
3928 	 66 	 1 	 -4.96801 	 13.5795 	 -12.5127 	 0 	 0 	 0
3930 	 66 	 1 	 -2.51221 	 14.8288 	 -12.006 	 0 	 0 	 0
5596 	 94 	 1 	 -12.1449 	 -17.2827 	 -13.0492 	 0 	 1 	 0
5595 	 94 	 1 	 -12.8209 	 16.0297 	 -12.4666 	 0 	 0 	 0
1962 	 33 	 1 	 -10.3948 	 16.3945 	 -12.0589 	 0 	 -1 	 0
5361 	 90 	 1 	 -6.54034 	 17.2217 	 -11.2612 	 0 	 0 	 0
3933 	 66 	 1 	 -5.89471 	 15.6696 	 -12.5657 	 0 	 0 	 0
3931 	 66 	 1 	 -3.55531 	 16.2702 	 -12.1293 	 0 	 0 	 0
148 	 3 	 1 	 -1.49755 	 -17.1537 	 -12.1164 	 0 	 1 	 1
5360 	 90 	 1 	 -7.72307 	 -16.0935 	 -11.7002 	 0 	 1 	 0
5359 	 90 	 1 	 -6.81201 	 -15.7176 	 -10.3376 	 0 	 1 	 0
5490 	 92 	 1 	 -16.0131 	 -15.131 	 -10.4938 	 0 	 0 	 0
1945 	 33 	 1 	 -13.9122 	 -16.3884 	 -12.9696 	 0 	 0 	 0
1948 	 33 	 1 	 -11.8853 	 -15.097 	 -11.9269 	 0 	 0 	 0